# vtk DataFile Version 3.0
vtk output
ASCII
DATASET UNSTRUCTURED_GRID
POINTS 9 double
-1 -1 0 0 -1 0 1 -1 0 
-1 0 0 0.0141923 0.0141923 0 1 0 0 
-1 1 0 0 1 0 1 1 0 

CELLS 4 20
4 0 1 4 3 
4 1 2 5 4 
4 3 4 7 6 
4 4 5 8 7 

CELL_TYPES 4
9
9
9
9

POINT_DATA 9
SCALARS fixed float
LOOKUP_TABLE default
1 1 1 1 0 1 1 1 1 

