# vtk DataFile Version 3.0
vtk output
ASCII
DATASET UNSTRUCTURED_GRID
POINTS 168 float
1.19869 1.03882e-15 -5 0.993818 0.978415 -5 0.418514 1.7964 -5 
-0.426181 2.33266 -5 -1.40964 2.51854 -5 -2.39309 2.33266 -5 
-3.23779 1.7964 -5 -3.81309 0.978415 -5 -4.01796 -7.30398e-16 -5 
-3.81309 -0.978415 -5 -3.23779 -1.7964 -5 -2.39309 -2.33266 -5 
-1.40964 -2.51854 -5 -0.426181 -2.33266 -5 0.418514 -1.7964 -5 
0.993818 -0.978415 -5 -5 -5 -5 5 -5 -5 
4 -5 -5 3 -5 -5 2 -5 -5 
1 -5 -5 0 -5 -5 -1 -5 -5 
-2 -5 -5 -3 -5 -5 -4 -5 -5 
-5 5 -5 -5 -4 -5 -5 -3 -5 
-5 -2 -5 -5 -1 -5 -5 0 -5 
-5 1 -5 -5 2 -5 -5 3 -5 
-5 4 -5 5 5 -5 -4 5 -5 
-3 5 -5 -2 5 -5 -1 5 -5 
0 5 -5 1 5 -5 2 5 -5 
3 5 -5 4 5 -5 5 4 -5 
5 3 -5 5 2 -5 5 1 -5 
5 0 -5 5 -1 -5 5 -2 -5 
5 -3 -5 5 -4 -5 -nan -nan -5 
-nan -nan -5 -nan nan -5 -nan nan -5 
-nan nan -5 -nan -nan -5 -nan -nan -5 
-nan -nan -5 -nan nan -5 -nan -nan -5 
-nan -nan -5 -nan nan -5 -nan -nan -5 
-nan -nan -5 -nan nan -5 -nan -nan -5 
-nan -nan -5 -nan nan -5 -nan nan -5 
-nan -nan -5 -nan -nan -5 -nan -nan -5 
-nan -nan -5 -nan nan -5 -nan -nan -5 
-nan -nan -5 -nan -nan -5 -nan nan -5 
-nan -nan -5 -nan -nan -5 -nan nan -5 
-nan -nan -5 -nan -nan -5 -nan -nan -5 
-nan -nan -5 -nan -nan -5 -nan nan -5 
-nan -nan -5 -nan -nan -5 -nan -nan -5 
-nan nan -5 -nan -nan -5 -nan -nan -5 
-nan -nan -5 -nan -nan -5 -nan -nan -5 
-nan -nan -5 -nan nan -5 -nan -nan -5 
-nan -nan -5 -nan -nan -5 -nan nan -5 
-nan -nan -5 -nan -nan -5 -nan -nan -5 
-nan -nan -5 -nan -nan -5 -nan -nan -5 
-nan -nan -5 -nan -nan -5 -nan -nan -5 
-nan -nan -5 -nan -nan -5 -nan -nan -5 
-nan -nan -5 -nan -nan -5 -nan -nan -5 
-nan -nan -5 -nan -nan -5 -nan -nan -5 
-nan -nan -5 -nan -nan -5 -nan -nan -5 
-nan -nan -5 -nan -nan -5 -nan -nan -5 
-nan -nan -5 -nan -nan -5 -nan -nan -5 
-nan -nan -5 -nan -nan -5 -nan nan -5 
-nan nan -5 -nan -nan -5 -nan nan -5 
-nan nan -5 -nan -nan -5 -nan -nan -5 
-nan nan -5 -nan -nan -5 -nan -nan -5 
-nan -nan -5 -nan -nan -5 -nan -nan -5 
-nan -nan -5 -nan -nan -5 -nan -nan -5 
-nan -nan -5 -nan -nan -5 -nan -nan -5 
-nan -nan -5 -nan -nan -5 -nan -nan -5 
-nan -nan -5 -nan -nan -5 -nan -nan -5 
-nan -nan -5 -nan -nan -5 -nan -nan -5 
-nan nan -5 -nan nan -5 -nan -nan -5 

CELLS 140 700
4 57 15 0 56 
4 65 14 15 57 
4 58 56 0 1 
4 59 60 56 58 
4 61 57 56 60 
4 62 58 1 2 
4 63 59 58 62 
4 49 50 59 63 
4 51 60 59 50 
4 52 61 60 51 
4 66 13 14 65 
4 69 66 65 68 
4 70 71 66 69 
4 12 13 66 71 
4 72 11 12 71 
4 73 72 71 70 
4 74 75 72 73 
4 76 11 72 75 
4 77 10 11 76 
4 78 9 10 77 
4 79 80 9 78 
4 81 8 9 80 
4 82 7 8 81 
4 83 77 76 75 
4 84 78 77 83 
4 85 79 78 84 
4 86 87 79 85 
4 88 80 79 87 
4 89 81 80 88 
4 90 82 81 89 
4 91 7 82 90 
4 92 83 75 74 
4 93 84 83 92 
4 94 85 84 93 
4 95 86 85 94 
4 96 97 86 95 
4 98 87 86 97 
4 99 88 87 98 
4 100 89 88 99 
4 101 90 89 100 
4 102 91 90 101 
4 103 104 91 102 
4 105 5 6 104 
4 106 4 5 105 
4 107 105 104 103 
4 62 2 3 108 
4 109 48 49 63 
4 110 47 48 109 
4 46 37 47 110 
4 111 45 46 110 
4 112 44 45 111 
4 113 43 44 112 
4 114 42 43 113 
4 115 41 42 114 
4 116 40 41 115 
4 117 39 40 116 
4 118 38 39 117 
4 36 27 38 118 
4 119 35 36 118 
4 120 34 35 119 
4 121 33 34 120 
4 122 32 33 121 
4 123 31 32 122 
4 124 30 31 123 
4 125 29 30 124 
4 126 28 29 125 
4 26 16 28 126 
4 127 25 26 126 
4 128 24 25 127 
4 129 23 24 128 
4 130 22 23 129 
4 131 21 22 130 
4 132 20 21 131 
4 133 19 20 132 
4 134 18 19 133 
4 55 17 18 134 
4 135 54 55 134 
4 136 53 54 135 
4 61 52 53 136 
4 63 62 108 137 
4 138 111 110 109 
4 139 112 111 138 
4 140 113 112 139 
4 141 114 113 140 
4 142 115 114 141 
4 119 118 117 143 
4 144 127 126 125 
4 145 128 127 144 
4 147 130 129 146 
4 148 131 130 147 
4 149 132 131 148 
4 150 133 132 149 
4 151 120 119 143 
4 152 121 120 151 
4 153 122 121 152 
4 164 123 122 153 
4 154 124 123 164 
4 69 68 67 150 
4 149 70 69 150 
4 148 73 70 149 
4 147 74 73 148 
4 146 92 74 147 
4 145 93 92 146 
4 146 129 128 145 
4 155 94 93 145 
4 162 95 94 155 
4 156 96 95 162 
4 154 163 96 156 
4 157 97 96 163 
4 161 101 100 158 
4 160 102 101 161 
4 159 103 102 160 
4 109 63 137 138 
4 160 151 143 159 
4 161 152 151 160 
4 162 155 145 144 
4 125 156 162 144 
4 124 154 156 125 
4 152 157 163 153 
4 161 158 157 152 
4 164 153 163 154 
4 158 98 97 157 
4 100 99 98 158 
4 134 67 64 135 
4 133 150 67 134 
4 67 68 165 64 
4 135 64 165 136 
4 61 136 165 57 
4 65 57 165 68 
4 7 91 104 6 
4 106 108 3 4 
4 166 137 108 106 
4 139 138 137 166 
4 140 139 166 107 
4 107 166 106 105 
4 103 141 140 107 
4 159 142 141 103 
4 143 117 116 167 
4 159 143 167 142 
4 167 116 115 142 

CELL_TYPES 140
9
9
9
9
9
9
9
9
9
9
9
9
9
9
9
9
9
9
9
9
9
9
9
9
9
9
9
9
9
9
9
9
9
9
9
9
9
9
9
9
9
9
9
9
9
9
9
9
9
9
9
9
9
9
9
9
9
9
9
9
9
9
9
9
9
9
9
9
9
9
9
9
9
9
9
9
9
9
9
9
9
9
9
9
9
9
9
9
9
9
9
9
9
9
9
9
9
9
9
9
9
9
9
9
9
9
9
9
9
9
9
9
9
9
9
9
9
9
9
9
9
9
9
9
9
9
9
9
9
9
9
9
9
9
9
9
9
9
9
9

CELL_DATA 140
FIELD FieldData 1
quality 1 140 double
-nan -nan -nan -nan -nan -nan -nan -nan -nan 
-nan -nan -nan -nan -nan -nan -nan -nan -nan 
-nan -nan -nan -nan -nan -nan -nan -nan -nan 
-nan -nan -nan -nan -nan -nan -nan -nan -nan 
-nan -nan -nan -nan -nan -nan -nan -nan -nan 
-nan -nan -nan -nan -nan -nan -nan -nan -nan 
-nan -nan -nan -nan -nan -nan -nan -nan -nan 
-nan -nan -nan -nan -nan -nan -nan -nan -nan 
-nan -nan -nan -nan -nan -nan -nan -nan -nan 
-nan -nan -nan -nan -nan -nan -nan -nan -nan 
-nan -nan -nan -nan -nan -nan -nan -nan -nan 
-nan -nan -nan -nan -nan -nan -nan -nan -nan 
-nan -nan -nan -nan -nan -nan -nan -nan -nan 
-nan -nan -nan -nan -nan -nan -nan -nan -nan 
-nan -nan -nan -nan -nan -nan -nan -nan -nan 
-nan -nan -nan -nan -nan 
POINT_DATA 168
SCALARS fixed float
LOOKUP_TABLE default
1 1 1 1 1 1 1 1 1 
1 1 1 1 1 1 1 1 1 
1 1 1 1 1 1 1 1 1 
1 1 1 1 1 1 1 1 1 
1 1 1 1 1 1 1 1 1 
1 1 1 1 1 1 1 1 1 
1 1 0 0 0 0 0 0 0 
0 0 0 0 0 0 0 0 0 
0 0 0 0 0 0 0 0 0 
0 0 0 0 0 0 0 0 0 
0 0 0 0 0 0 0 0 0 
0 0 0 0 0 0 0 0 0 
0 0 0 0 0 0 0 0 0 
0 0 0 0 0 0 0 0 0 
0 0 0 0 0 0 0 0 0 
0 0 0 0 0 0 0 0 0 
0 0 0 0 0 0 0 0 0 
0 0 0 0 0 0 0 0 0 
0 0 0 0 0 0 
